+ 1 0 1 cbr 512 ------- 0 0.0 1.0 0 0
- 1 0 1 cbr 512 ------- 0 0.0 1.0 0 0
+ 1.004096 0 1 cbr 512 ------- 0 0.0 1.0 1 1
- 1.004096 0 1 cbr 512 ------- 0 0.0 1.0 1 1
+ 1.008192 0 1 cbr 512 ------- 0 0.0 1.0 2 2
- 1.008192 0 1 cbr 512 ------- 0 0.0 1.0 2 2
+ 1.012288 0 1 cbr 512 ------- 0 0.0 1.0 3 3
- 1.012288 0 1 cbr 512 ------- 0 0.0 1.0 3 3
r 1.014096 0 1 cbr 512 ------- 0 0.0 1.0 0 0
+ 1.016384 0 1 cbr 512 ------- 0 0.0 1.0 4 4
- 1.016384 0 1 cbr 512 ------- 0 0.0 1.0 4 4
r 1.018192 0 1 cbr 512 ------- 0 0.0 1.0 1 1
+ 1.02048 0 1 cbr 512 ------- 0 0.0 1.0 5 5
- 1.02048 0 1 cbr 512 ------- 0 0.0 1.0 5 5
r 1.022288 0 1 cbr 512 ------- 0 0.0 1.0 2 2
+ 1.024576 0 1 cbr 512 ------- 0 0.0 1.0 6 6
- 1.024576 0 1 cbr 512 ------- 0 0.0 1.0 6 6
r 1.026384 0 1 cbr 512 ------- 0 0.0 1.0 3 3
+ 1.028672 0 1 cbr 512 ------- 0 0.0 1.0 7 7
- 1.028672 0 1 cbr 512 ------- 0 0.0 1.0 7 7
r 1.03048 0 1 cbr 512 ------- 0 0.0 1.0 4 4
+ 1.032768 0 1 cbr 512 ------- 0 0.0 1.0 8 8
- 1.032768 0 1 cbr 512 ------- 0 0.0 1.0 8 8
r 1.034576 0 1 cbr 512 ------- 0 0.0 1.0 5 5
+ 1.036864 0 1 cbr 512 ------- 0 0.0 1.0 9 9
- 1.036864 0 1 cbr 512 ------- 0 0.0 1.0 9 9
r 1.038672 0 1 cbr 512 ------- 0 0.0 1.0 6 6
+ 1.04096 0 1 cbr 512 ------- 0 0.0 1.0 10 10
- 1.04096 0 1 cbr 512 ------- 0 0.0 1.0 10 10
r 1.042768 0 1 cbr 512 ------- 0 0.0 1.0 7 7
+ 1.045056 0 1 cbr 512 ------- 0 0.0 1.0 11 11
- 1.045056 0 1 cbr 512 ------- 0 0.0 1.0 11 11
r 1.046864 0 1 cbr 512 ------- 0 0.0 1.0 8 8
+ 1.049152 0 1 cbr 512 ------- 0 0.0 1.0 12 12
- 1.049152 0 1 cbr 512 ------- 0 0.0 1.0 12 12
r 1.05096 0 1 cbr 512 ------- 0 0.0 1.0 9 9
+ 1.053248 0 1 cbr 512 ------- 0 0.0 1.0 13 13
- 1.053248 0 1 cbr 512 ------- 0 0.0 1.0 13 13
r 1.055056 0 1 cbr 512 ------- 0 0.0 1.0 10 10
+ 1.057344 0 1 cbr 512 ------- 0 0.0 1.0 14 14
- 1.057344 0 1 cbr 512 ------- 0 0.0 1.0 14 14
r 1.059152 0 1 cbr 512 ------- 0 0.0 1.0 11 11
+ 1.06144 0 1 cbr 512 ------- 0 0.0 1.0 15 15
- 1.06144 0 1 cbr 512 ------- 0 0.0 1.0 15 15
r 1.063248 0 1 cbr 512 ------- 0 0.0 1.0 12 12
+ 1.065536 0 1 cbr 512 ------- 0 0.0 1.0 16 16
- 1.065536 0 1 cbr 512 ------- 0 0.0 1.0 16 16
r 1.067344 0 1 cbr 512 ------- 0 0.0 1.0 13 13
+ 1.069632 0 1 cbr 512 ------- 0 0.0 1.0 17 17
- 1.069632 0 1 cbr 512 ------- 0 0.0 1.0 17 17
r 1.07144 0 1 cbr 512 ------- 0 0.0 1.0 14 14
+ 1.073728 0 1 cbr 512 ------- 0 0.0 1.0 18 18
- 1.073728 0 1 cbr 512 ------- 0 0.0 1.0 18 18
r 1.075536 0 1 cbr 512 ------- 0 0.0 1.0 15 15
+ 1.077824 0 1 cbr 512 ------- 0 0.0 1.0 19 19
- 1.077824 0 1 cbr 512 ------- 0 0.0 1.0 19 19
r 1.079632 0 1 cbr 512 ------- 0 0.0 1.0 16 16
+ 1.08192 0 1 cbr 512 ------- 0 0.0 1.0 20 20
- 1.08192 0 1 cbr 512 ------- 0 0.0 1.0 20 20
r 1.083728 0 1 cbr 512 ------- 0 0.0 1.0 17 17
+ 1.086016 0 1 cbr 512 ------- 0 0.0 1.0 21 21
- 1.086016 0 1 cbr 512 ------- 0 0.0 1.0 21 21
r 1.087824 0 1 cbr 512 ------- 0 0.0 1.0 18 18
+ 1.090112 0 1 cbr 512 ------- 0 0.0 1.0 22 22
- 1.090112 0 1 cbr 512 ------- 0 0.0 1.0 22 22
r 1.09192 0 1 cbr 512 ------- 0 0.0 1.0 19 19
+ 1.094208 0 1 cbr 512 ------- 0 0.0 1.0 23 23
- 1.094208 0 1 cbr 512 ------- 0 0.0 1.0 23 23
r 1.096016 0 1 cbr 512 ------- 0 0.0 1.0 20 20
+ 1.098304 0 1 cbr 512 ------- 0 0.0 1.0 24 24
- 1.098304 0 1 cbr 512 ------- 0 0.0 1.0 24 24
r 1.100112 0 1 cbr 512 ------- 0 0.0 1.0 21 21
+ 1.1024 0 1 cbr 512 ------- 0 0.0 1.0 25 25
- 1.1024 0 1 cbr 512 ------- 0 0.0 1.0 25 25
r 1.104208 0 1 cbr 512 ------- 0 0.0 1.0 22 22
+ 1.106496 0 1 cbr 512 ------- 0 0.0 1.0 26 26
- 1.106496 0 1 cbr 512 ------- 0 0.0 1.0 26 26
r 1.108304 0 1 cbr 512 ------- 0 0.0 1.0 23 23
+ 1.110592 0 1 cbr 512 ------- 0 0.0 1.0 27 27
- 1.110592 0 1 cbr 512 ------- 0 0.0 1.0 27 27
r 1.1124 0 1 cbr 512 ------- 0 0.0 1.0 24 24
+ 1.114688 0 1 cbr 512 ------- 0 0.0 1.0 28 28
- 1.114688 0 1 cbr 512 ------- 0 0.0 1.0 28 28
r 1.116496 0 1 cbr 512 ------- 0 0.0 1.0 25 25
+ 1.118784 0 1 cbr 512 ------- 0 0.0 1.0 29 29
- 1.118784 0 1 cbr 512 ------- 0 0.0 1.0 29 29
r 1.120592 0 1 cbr 512 ------- 0 0.0 1.0 26 26
+ 1.12288 0 1 cbr 512 ------- 0 0.0 1.0 30 30
- 1.12288 0 1 cbr 512 ------- 0 0.0 1.0 30 30
r 1.124688 0 1 cbr 512 ------- 0 0.0 1.0 27 27
+ 1.126976 0 1 cbr 512 ------- 0 0.0 1.0 31 31
- 1.126976 0 1 cbr 512 ------- 0 0.0 1.0 31 31
r 1.128784 0 1 cbr 512 ------- 0 0.0 1.0 28 28
+ 1.131072 0 1 cbr 512 ------- 0 0.0 1.0 32 32
- 1.131072 0 1 cbr 512 ------- 0 0.0 1.0 32 32
r 1.13288 0 1 cbr 512 ------- 0 0.0 1.0 29 29
+ 1.135168 0 1 cbr 512 ------- 0 0.0 1.0 33 33
- 1.135168 0 1 cbr 512 ------- 0 0.0 1.0 33 33
r 1.136976 0 1 cbr 512 ------- 0 0.0 1.0 30 30
+ 1.139264 0 1 cbr 512 ------- 0 0.0 1.0 34 34
- 1.139264 0 1 cbr 512 ------- 0 0.0 1.0 34 34
r 1.141072 0 1 cbr 512 ------- 0 0.0 1.0 31 31
+ 1.14336 0 1 cbr 512 ------- 0 0.0 1.0 35 35
- 1.14336 0 1 cbr 512 ------- 0 0.0 1.0 35 35
r 1.145168 0 1 cbr 512 ------- 0 0.0 1.0 32 32
+ 1.147456 0 1 cbr 512 ------- 0 0.0 1.0 36 36
- 1.147456 0 1 cbr 512 ------- 0 0.0 1.0 36 36
r 1.149264 0 1 cbr 512 ------- 0 0.0 1.0 33 33
+ 1.151552 0 1 cbr 512 ------- 0 0.0 1.0 37 37
- 1.151552 0 1 cbr 512 ------- 0 0.0 1.0 37 37
r 1.15336 0 1 cbr 512 ------- 0 0.0 1.0 34 34
+ 1.155648 0 1 cbr 512 ------- 0 0.0 1.0 38 38
- 1.155648 0 1 cbr 512 ------- 0 0.0 1.0 38 38
r 1.157456 0 1 cbr 512 ------- 0 0.0 1.0 35 35
+ 1.159744 0 1 cbr 512 ------- 0 0.0 1.0 39 39
- 1.159744 0 1 cbr 512 ------- 0 0.0 1.0 39 39
r 1.161552 0 1 cbr 512 ------- 0 0.0 1.0 36 36
+ 1.16384 0 1 cbr 512 ------- 0 0.0 1.0 40 40
- 1.16384 0 1 cbr 512 ------- 0 0.0 1.0 40 40
r 1.165648 0 1 cbr 512 ------- 0 0.0 1.0 37 37
+ 1.167936 0 1 cbr 512 ------- 0 0.0 1.0 41 41
- 1.167936 0 1 cbr 512 ------- 0 0.0 1.0 41 41
r 1.169744 0 1 cbr 512 ------- 0 0.0 1.0 38 38
+ 1.172032 0 1 cbr 512 ------- 0 0.0 1.0 42 42
- 1.172032 0 1 cbr 512 ------- 0 0.0 1.0 42 42
r 1.17384 0 1 cbr 512 ------- 0 0.0 1.0 39 39
+ 1.176128 0 1 cbr 512 ------- 0 0.0 1.0 43 43
- 1.176128 0 1 cbr 512 ------- 0 0.0 1.0 43 43
r 1.177936 0 1 cbr 512 ------- 0 0.0 1.0 40 40
+ 1.180224 0 1 cbr 512 ------- 0 0.0 1.0 44 44
- 1.180224 0 1 cbr 512 ------- 0 0.0 1.0 44 44
r 1.182032 0 1 cbr 512 ------- 0 0.0 1.0 41 41
+ 1.18432 0 1 cbr 512 ------- 0 0.0 1.0 45 45
- 1.18432 0 1 cbr 512 ------- 0 0.0 1.0 45 45
r 1.186128 0 1 cbr 512 ------- 0 0.0 1.0 42 42
+ 1.188416 0 1 cbr 512 ------- 0 0.0 1.0 46 46
- 1.188416 0 1 cbr 512 ------- 0 0.0 1.0 46 46
r 1.190224 0 1 cbr 512 ------- 0 0.0 1.0 43 43
+ 1.192512 0 1 cbr 512 ------- 0 0.0 1.0 47 47
- 1.192512 0 1 cbr 512 ------- 0 0.0 1.0 47 47
r 1.19432 0 1 cbr 512 ------- 0 0.0 1.0 44 44
+ 1.196608 0 1 cbr 512 ------- 0 0.0 1.0 48 48
- 1.196608 0 1 cbr 512 ------- 0 0.0 1.0 48 48
r 1.198416 0 1 cbr 512 ------- 0 0.0 1.0 45 45
+ 1.200704 0 1 cbr 512 ------- 0 0.0 1.0 49 49
- 1.200704 0 1 cbr 512 ------- 0 0.0 1.0 49 49
r 1.202512 0 1 cbr 512 ------- 0 0.0 1.0 46 46
+ 1.2048 0 1 cbr 512 ------- 0 0.0 1.0 50 50
- 1.2048 0 1 cbr 512 ------- 0 0.0 1.0 50 50
r 1.206608 0 1 cbr 512 ------- 0 0.0 1.0 47 47
+ 1.208896 0 1 cbr 512 ------- 0 0.0 1.0 51 51
- 1.208896 0 1 cbr 512 ------- 0 0.0 1.0 51 51
r 1.210704 0 1 cbr 512 ------- 0 0.0 1.0 48 48
+ 1.212992 0 1 cbr 512 ------- 0 0.0 1.0 52 52
- 1.212992 0 1 cbr 512 ------- 0 0.0 1.0 52 52
r 1.2148 0 1 cbr 512 ------- 0 0.0 1.0 49 49
+ 1.217088 0 1 cbr 512 ------- 0 0.0 1.0 53 53
- 1.217088 0 1 cbr 512 ------- 0 0.0 1.0 53 53
r 1.218896 0 1 cbr 512 ------- 0 0.0 1.0 50 50
+ 1.221184 0 1 cbr 512 ------- 0 0.0 1.0 54 54
- 1.221184 0 1 cbr 512 ------- 0 0.0 1.0 54 54
r 1.222992 0 1 cbr 512 ------- 0 0.0 1.0 51 51
+ 1.22528 0 1 cbr 512 ------- 0 0.0 1.0 55 55
- 1.22528 0 1 cbr 512 ------- 0 0.0 1.0 55 55
r 1.227088 0 1 cbr 512 ------- 0 0.0 1.0 52 52
+ 1.229376 0 1 cbr 512 ------- 0 0.0 1.0 56 56
- 1.229376 0 1 cbr 512 ------- 0 0.0 1.0 56 56
r 1.231184 0 1 cbr 512 ------- 0 0.0 1.0 53 53
+ 1.233472 0 1 cbr 512 ------- 0 0.0 1.0 57 57
- 1.233472 0 1 cbr 512 ------- 0 0.0 1.0 57 57
r 1.23528 0 1 cbr 512 ------- 0 0.0 1.0 54 54
+ 1.237568 0 1 cbr 512 ------- 0 0.0 1.0 58 58
- 1.237568 0 1 cbr 512 ------- 0 0.0 1.0 58 58
r 1.239376 0 1 cbr 512 ------- 0 0.0 1.0 55 55
+ 1.241664 0 1 cbr 512 ------- 0 0.0 1.0 59 59
- 1.241664 0 1 cbr 512 ------- 0 0.0 1.0 59 59
r 1.243472 0 1 cbr 512 ------- 0 0.0 1.0 56 56
+ 1.24576 0 1 cbr 512 ------- 0 0.0 1.0 60 60
- 1.24576 0 1 cbr 512 ------- 0 0.0 1.0 60 60
r 1.247568 0 1 cbr 512 ------- 0 0.0 1.0 57 57
+ 1.249856 0 1 cbr 512 ------- 0 0.0 1.0 61 61
- 1.249856 0 1 cbr 512 ------- 0 0.0 1.0 61 61
r 1.251664 0 1 cbr 512 ------- 0 0.0 1.0 58 58
+ 1.253952 0 1 cbr 512 ------- 0 0.0 1.0 62 62
- 1.253952 0 1 cbr 512 ------- 0 0.0 1.0 62 62
r 1.25576 0 1 cbr 512 ------- 0 0.0 1.0 59 59
+ 1.258048 0 1 cbr 512 ------- 0 0.0 1.0 63 63
- 1.258048 0 1 cbr 512 ------- 0 0.0 1.0 63 63
r 1.259856 0 1 cbr 512 ------- 0 0.0 1.0 60 60
+ 1.262144 0 1 cbr 512 ------- 0 0.0 1.0 64 64
- 1.262144 0 1 cbr 512 ------- 0 0.0 1.0 64 64
r 1.263952 0 1 cbr 512 ------- 0 0.0 1.0 61 61
+ 1.26624 0 1 cbr 512 ------- 0 0.0 1.0 65 65
- 1.26624 0 1 cbr 512 ------- 0 0.0 1.0 65 65
r 1.268048 0 1 cbr 512 ------- 0 0.0 1.0 62 62
+ 1.270336 0 1 cbr 512 ------- 0 0.0 1.0 66 66
- 1.270336 0 1 cbr 512 ------- 0 0.0 1.0 66 66
r 1.272144 0 1 cbr 512 ------- 0 0.0 1.0 63 63
+ 1.274432 0 1 cbr 512 ------- 0 0.0 1.0 67 67
- 1.274432 0 1 cbr 512 ------- 0 0.0 1.0 67 67
r 1.27624 0 1 cbr 512 ------- 0 0.0 1.0 64 64
+ 1.278528 0 1 cbr 512 ------- 0 0.0 1.0 68 68
- 1.278528 0 1 cbr 512 ------- 0 0.0 1.0 68 68
r 1.280336 0 1 cbr 512 ------- 0 0.0 1.0 65 65
+ 1.282624 0 1 cbr 512 ------- 0 0.0 1.0 69 69
- 1.282624 0 1 cbr 512 ------- 0 0.0 1.0 69 69
r 1.284432 0 1 cbr 512 ------- 0 0.0 1.0 66 66
+ 1.28672 0 1 cbr 512 ------- 0 0.0 1.0 70 70
- 1.28672 0 1 cbr 512 ------- 0 0.0 1.0 70 70
r 1.288528 0 1 cbr 512 ------- 0 0.0 1.0 67 67
+ 1.290816 0 1 cbr 512 ------- 0 0.0 1.0 71 71
- 1.290816 0 1 cbr 512 ------- 0 0.0 1.0 71 71
r 1.292624 0 1 cbr 512 ------- 0 0.0 1.0 68 68
+ 1.294912 0 1 cbr 512 ------- 0 0.0 1.0 72 72
- 1.294912 0 1 cbr 512 ------- 0 0.0 1.0 72 72
r 1.29672 0 1 cbr 512 ------- 0 0.0 1.0 69 69
+ 1.299008 0 1 cbr 512 ------- 0 0.0 1.0 73 73
- 1.299008 0 1 cbr 512 ------- 0 0.0 1.0 73 73
r 1.300816 0 1 cbr 512 ------- 0 0.0 1.0 70 70
+ 1.303104 0 1 cbr 512 ------- 0 0.0 1.0 74 74
- 1.303104 0 1 cbr 512 ------- 0 0.0 1.0 74 74
r 1.304912 0 1 cbr 512 ------- 0 0.0 1.0 71 71
+ 1.3072 0 1 cbr 512 ------- 0 0.0 1.0 75 75
- 1.3072 0 1 cbr 512 ------- 0 0.0 1.0 75 75
r 1.309008 0 1 cbr 512 ------- 0 0.0 1.0 72 72
+ 1.311296 0 1 cbr 512 ------- 0 0.0 1.0 76 76
- 1.311296 0 1 cbr 512 ------- 0 0.0 1.0 76 76
r 1.313104 0 1 cbr 512 ------- 0 0.0 1.0 73 73
+ 1.315392 0 1 cbr 512 ------- 0 0.0 1.0 77 77
- 1.315392 0 1 cbr 512 ------- 0 0.0 1.0 77 77
r 1.3172 0 1 cbr 512 ------- 0 0.0 1.0 74 74
+ 1.319488 0 1 cbr 512 ------- 0 0.0 1.0 78 78
- 1.319488 0 1 cbr 512 ------- 0 0.0 1.0 78 78
r 1.321296 0 1 cbr 512 ------- 0 0.0 1.0 75 75
+ 1.323584 0 1 cbr 512 ------- 0 0.0 1.0 79 79
- 1.323584 0 1 cbr 512 ------- 0 0.0 1.0 79 79
r 1.325392 0 1 cbr 512 ------- 0 0.0 1.0 76 76
+ 1.32768 0 1 cbr 512 ------- 0 0.0 1.0 80 80
- 1.32768 0 1 cbr 512 ------- 0 0.0 1.0 80 80
r 1.329488 0 1 cbr 512 ------- 0 0.0 1.0 77 77
+ 1.331776 0 1 cbr 512 ------- 0 0.0 1.0 81 81
- 1.331776 0 1 cbr 512 ------- 0 0.0 1.0 81 81
r 1.333584 0 1 cbr 512 ------- 0 0.0 1.0 78 78
+ 1.335872 0 1 cbr 512 ------- 0 0.0 1.0 82 82
- 1.335872 0 1 cbr 512 ------- 0 0.0 1.0 82 82
r 1.33768 0 1 cbr 512 ------- 0 0.0 1.0 79 79
+ 1.339968 0 1 cbr 512 ------- 0 0.0 1.0 83 83
- 1.339968 0 1 cbr 512 ------- 0 0.0 1.0 83 83
r 1.341776 0 1 cbr 512 ------- 0 0.0 1.0 80 80
+ 1.344064 0 1 cbr 512 ------- 0 0.0 1.0 84 84
- 1.344064 0 1 cbr 512 ------- 0 0.0 1.0 84 84
r 1.345872 0 1 cbr 512 ------- 0 0.0 1.0 81 81
+ 1.34816 0 1 cbr 512 ------- 0 0.0 1.0 85 85
- 1.34816 0 1 cbr 512 ------- 0 0.0 1.0 85 85
r 1.349968 0 1 cbr 512 ------- 0 0.0 1.0 82 82
+ 1.352256 0 1 cbr 512 ------- 0 0.0 1.0 86 86
- 1.352256 0 1 cbr 512 ------- 0 0.0 1.0 86 86
r 1.354064 0 1 cbr 512 ------- 0 0.0 1.0 83 83
+ 1.356352 0 1 cbr 512 ------- 0 0.0 1.0 87 87
- 1.356352 0 1 cbr 512 ------- 0 0.0 1.0 87 87
r 1.35816 0 1 cbr 512 ------- 0 0.0 1.0 84 84
+ 1.360448 0 1 cbr 512 ------- 0 0.0 1.0 88 88
- 1.360448 0 1 cbr 512 ------- 0 0.0 1.0 88 88
r 1.362256 0 1 cbr 512 ------- 0 0.0 1.0 85 85
+ 1.364544 0 1 cbr 512 ------- 0 0.0 1.0 89 89
- 1.364544 0 1 cbr 512 ------- 0 0.0 1.0 89 89
r 1.366352 0 1 cbr 512 ------- 0 0.0 1.0 86 86
+ 1.36864 0 1 cbr 512 ------- 0 0.0 1.0 90 90
- 1.36864 0 1 cbr 512 ------- 0 0.0 1.0 90 90
r 1.370448 0 1 cbr 512 ------- 0 0.0 1.0 87 87
+ 1.372736 0 1 cbr 512 ------- 0 0.0 1.0 91 91
- 1.372736 0 1 cbr 512 ------- 0 0.0 1.0 91 91
r 1.374544 0 1 cbr 512 ------- 0 0.0 1.0 88 88
+ 1.376832 0 1 cbr 512 ------- 0 0.0 1.0 92 92
- 1.376832 0 1 cbr 512 ------- 0 0.0 1.0 92 92
r 1.37864 0 1 cbr 512 ------- 0 0.0 1.0 89 89
+ 1.380928 0 1 cbr 512 ------- 0 0.0 1.0 93 93
- 1.380928 0 1 cbr 512 ------- 0 0.0 1.0 93 93
r 1.382736 0 1 cbr 512 ------- 0 0.0 1.0 90 90
+ 1.385024 0 1 cbr 512 ------- 0 0.0 1.0 94 94
- 1.385024 0 1 cbr 512 ------- 0 0.0 1.0 94 94
r 1.386832 0 1 cbr 512 ------- 0 0.0 1.0 91 91
+ 1.38912 0 1 cbr 512 ------- 0 0.0 1.0 95 95
- 1.38912 0 1 cbr 512 ------- 0 0.0 1.0 95 95
r 1.390928 0 1 cbr 512 ------- 0 0.0 1.0 92 92
+ 1.393216 0 1 cbr 512 ------- 0 0.0 1.0 96 96
- 1.393216 0 1 cbr 512 ------- 0 0.0 1.0 96 96
r 1.395024 0 1 cbr 512 ------- 0 0.0 1.0 93 93
+ 1.397312 0 1 cbr 512 ------- 0 0.0 1.0 97 97
- 1.397312 0 1 cbr 512 ------- 0 0.0 1.0 97 97
r 1.39912 0 1 cbr 512 ------- 0 0.0 1.0 94 94
+ 1.401408 0 1 cbr 512 ------- 0 0.0 1.0 98 98
- 1.401408 0 1 cbr 512 ------- 0 0.0 1.0 98 98
r 1.403216 0 1 cbr 512 ------- 0 0.0 1.0 95 95
+ 1.405504 0 1 cbr 512 ------- 0 0.0 1.0 99 99
- 1.405504 0 1 cbr 512 ------- 0 0.0 1.0 99 99
r 1.407312 0 1 cbr 512 ------- 0 0.0 1.0 96 96
+ 1.4096 0 1 cbr 512 ------- 0 0.0 1.0 100 100
- 1.4096 0 1 cbr 512 ------- 0 0.0 1.0 100 100
r 1.411408 0 1 cbr 512 ------- 0 0.0 1.0 97 97
+ 1.413696 0 1 cbr 512 ------- 0 0.0 1.0 101 101
- 1.413696 0 1 cbr 512 ------- 0 0.0 1.0 101 101
r 1.415504 0 1 cbr 512 ------- 0 0.0 1.0 98 98
+ 1.417792 0 1 cbr 512 ------- 0 0.0 1.0 102 102
- 1.417792 0 1 cbr 512 ------- 0 0.0 1.0 102 102
r 1.4196 0 1 cbr 512 ------- 0 0.0 1.0 99 99
+ 1.421888 0 1 cbr 512 ------- 0 0.0 1.0 103 103
- 1.421888 0 1 cbr 512 ------- 0 0.0 1.0 103 103
r 1.423696 0 1 cbr 512 ------- 0 0.0 1.0 100 100
+ 1.425984 0 1 cbr 512 ------- 0 0.0 1.0 104 104
- 1.425984 0 1 cbr 512 ------- 0 0.0 1.0 104 104
r 1.427792 0 1 cbr 512 ------- 0 0.0 1.0 101 101
+ 1.43008 0 1 cbr 512 ------- 0 0.0 1.0 105 105
- 1.43008 0 1 cbr 512 ------- 0 0.0 1.0 105 105
r 1.431888 0 1 cbr 512 ------- 0 0.0 1.0 102 102
+ 1.434176 0 1 cbr 512 ------- 0 0.0 1.0 106 106
- 1.434176 0 1 cbr 512 ------- 0 0.0 1.0 106 106
r 1.435984 0 1 cbr 512 ------- 0 0.0 1.0 103 103
+ 1.438272 0 1 cbr 512 ------- 0 0.0 1.0 107 107
- 1.438272 0 1 cbr 512 ------- 0 0.0 1.0 107 107
r 1.44008 0 1 cbr 512 ------- 0 0.0 1.0 104 104
+ 1.442368 0 1 cbr 512 ------- 0 0.0 1.0 108 108
- 1.442368 0 1 cbr 512 ------- 0 0.0 1.0 108 108
r 1.444176 0 1 cbr 512 ------- 0 0.0 1.0 105 105
+ 1.446464 0 1 cbr 512 ------- 0 0.0 1.0 109 109
- 1.446464 0 1 cbr 512 ------- 0 0.0 1.0 109 109
r 1.448272 0 1 cbr 512 ------- 0 0.0 1.0 106 106
+ 1.45056 0 1 cbr 512 ------- 0 0.0 1.0 110 110
- 1.45056 0 1 cbr 512 ------- 0 0.0 1.0 110 110
r 1.452368 0 1 cbr 512 ------- 0 0.0 1.0 107 107
+ 1.454656 0 1 cbr 512 ------- 0 0.0 1.0 111 111
- 1.454656 0 1 cbr 512 ------- 0 0.0 1.0 111 111
r 1.456464 0 1 cbr 512 ------- 0 0.0 1.0 108 108
+ 1.458752 0 1 cbr 512 ------- 0 0.0 1.0 112 112
- 1.458752 0 1 cbr 512 ------- 0 0.0 1.0 112 112
r 1.46056 0 1 cbr 512 ------- 0 0.0 1.0 109 109
+ 1.462848 0 1 cbr 512 ------- 0 0.0 1.0 113 113
- 1.462848 0 1 cbr 512 ------- 0 0.0 1.0 113 113
r 1.464656 0 1 cbr 512 ------- 0 0.0 1.0 110 110
+ 1.466944 0 1 cbr 512 ------- 0 0.0 1.0 114 114
- 1.466944 0 1 cbr 512 ------- 0 0.0 1.0 114 114
r 1.468752 0 1 cbr 512 ------- 0 0.0 1.0 111 111
+ 1.47104 0 1 cbr 512 ------- 0 0.0 1.0 115 115
- 1.47104 0 1 cbr 512 ------- 0 0.0 1.0 115 115
r 1.472848 0 1 cbr 512 ------- 0 0.0 1.0 112 112
+ 1.475136 0 1 cbr 512 ------- 0 0.0 1.0 116 116
- 1.475136 0 1 cbr 512 ------- 0 0.0 1.0 116 116
r 1.476944 0 1 cbr 512 ------- 0 0.0 1.0 113 113
+ 1.479232 0 1 cbr 512 ------- 0 0.0 1.0 117 117
- 1.479232 0 1 cbr 512 ------- 0 0.0 1.0 117 117
r 1.48104 0 1 cbr 512 ------- 0 0.0 1.0 114 114
+ 1.483328 0 1 cbr 512 ------- 0 0.0 1.0 118 118
- 1.483328 0 1 cbr 512 ------- 0 0.0 1.0 118 118
r 1.485136 0 1 cbr 512 ------- 0 0.0 1.0 115 115
+ 1.487424 0 1 cbr 512 ------- 0 0.0 1.0 119 119
- 1.487424 0 1 cbr 512 ------- 0 0.0 1.0 119 119
r 1.489232 0 1 cbr 512 ------- 0 0.0 1.0 116 116
+ 1.49152 0 1 cbr 512 ------- 0 0.0 1.0 120 120
- 1.49152 0 1 cbr 512 ------- 0 0.0 1.0 120 120
r 1.493328 0 1 cbr 512 ------- 0 0.0 1.0 117 117
+ 1.495616 0 1 cbr 512 ------- 0 0.0 1.0 121 121
- 1.495616 0 1 cbr 512 ------- 0 0.0 1.0 121 121
r 1.497424 0 1 cbr 512 ------- 0 0.0 1.0 118 118
+ 1.499712 0 1 cbr 512 ------- 0 0.0 1.0 122 122
- 1.499712 0 1 cbr 512 ------- 0 0.0 1.0 122 122
r 1.50152 0 1 cbr 512 ------- 0 0.0 1.0 119 119
+ 1.503808 0 1 cbr 512 ------- 0 0.0 1.0 123 123
- 1.503808 0 1 cbr 512 ------- 0 0.0 1.0 123 123
r 1.505616 0 1 cbr 512 ------- 0 0.0 1.0 120 120
+ 1.507904 0 1 cbr 512 ------- 0 0.0 1.0 124 124
- 1.507904 0 1 cbr 512 ------- 0 0.0 1.0 124 124
r 1.509712 0 1 cbr 512 ------- 0 0.0 1.0 121 121
+ 1.512 0 1 cbr 512 ------- 0 0.0 1.0 125 125
- 1.512 0 1 cbr 512 ------- 0 0.0 1.0 125 125
r 1.513808 0 1 cbr 512 ------- 0 0.0 1.0 122 122
+ 1.516096 0 1 cbr 512 ------- 0 0.0 1.0 126 126
- 1.516096 0 1 cbr 512 ------- 0 0.0 1.0 126 126
r 1.517904 0 1 cbr 512 ------- 0 0.0 1.0 123 123
+ 1.520192 0 1 cbr 512 ------- 0 0.0 1.0 127 127
- 1.520192 0 1 cbr 512 ------- 0 0.0 1.0 127 127
r 1.522 0 1 cbr 512 ------- 0 0.0 1.0 124 124
+ 1.524288 0 1 cbr 512 ------- 0 0.0 1.0 128 128
- 1.524288 0 1 cbr 512 ------- 0 0.0 1.0 128 128
r 1.526096 0 1 cbr 512 ------- 0 0.0 1.0 125 125
+ 1.528384 0 1 cbr 512 ------- 0 0.0 1.0 129 129
- 1.528384 0 1 cbr 512 ------- 0 0.0 1.0 129 129
r 1.530192 0 1 cbr 512 ------- 0 0.0 1.0 126 126
+ 1.53248 0 1 cbr 512 ------- 0 0.0 1.0 130 130
- 1.53248 0 1 cbr 512 ------- 0 0.0 1.0 130 130
r 1.534288 0 1 cbr 512 ------- 0 0.0 1.0 127 127
+ 1.536576 0 1 cbr 512 ------- 0 0.0 1.0 131 131
- 1.536576 0 1 cbr 512 ------- 0 0.0 1.0 131 131
r 1.538384 0 1 cbr 512 ------- 0 0.0 1.0 128 128
+ 1.540672 0 1 cbr 512 ------- 0 0.0 1.0 132 132
- 1.540672 0 1 cbr 512 ------- 0 0.0 1.0 132 132
r 1.54248 0 1 cbr 512 ------- 0 0.0 1.0 129 129
+ 1.544768 0 1 cbr 512 ------- 0 0.0 1.0 133 133
- 1.544768 0 1 cbr 512 ------- 0 0.0 1.0 133 133
r 1.546576 0 1 cbr 512 ------- 0 0.0 1.0 130 130
+ 1.548864 0 1 cbr 512 ------- 0 0.0 1.0 134 134
- 1.548864 0 1 cbr 512 ------- 0 0.0 1.0 134 134
r 1.550672 0 1 cbr 512 ------- 0 0.0 1.0 131 131
+ 1.55296 0 1 cbr 512 ------- 0 0.0 1.0 135 135
- 1.55296 0 1 cbr 512 ------- 0 0.0 1.0 135 135
r 1.554768 0 1 cbr 512 ------- 0 0.0 1.0 132 132
+ 1.557056 0 1 cbr 512 ------- 0 0.0 1.0 136 136
- 1.557056 0 1 cbr 512 ------- 0 0.0 1.0 136 136
r 1.558864 0 1 cbr 512 ------- 0 0.0 1.0 133 133
+ 1.561152 0 1 cbr 512 ------- 0 0.0 1.0 137 137
- 1.561152 0 1 cbr 512 ------- 0 0.0 1.0 137 137
r 1.56296 0 1 cbr 512 ------- 0 0.0 1.0 134 134
+ 1.565248 0 1 cbr 512 ------- 0 0.0 1.0 138 138
- 1.565248 0 1 cbr 512 ------- 0 0.0 1.0 138 138
r 1.567056 0 1 cbr 512 ------- 0 0.0 1.0 135 135
+ 1.569344 0 1 cbr 512 ------- 0 0.0 1.0 139 139
- 1.569344 0 1 cbr 512 ------- 0 0.0 1.0 139 139
r 1.571152 0 1 cbr 512 ------- 0 0.0 1.0 136 136
+ 1.57344 0 1 cbr 512 ------- 0 0.0 1.0 140 140
- 1.57344 0 1 cbr 512 ------- 0 0.0 1.0 140 140
r 1.575248 0 1 cbr 512 ------- 0 0.0 1.0 137 137
+ 1.577536 0 1 cbr 512 ------- 0 0.0 1.0 141 141
- 1.577536 0 1 cbr 512 ------- 0 0.0 1.0 141 141
r 1.579344 0 1 cbr 512 ------- 0 0.0 1.0 138 138
+ 1.581632 0 1 cbr 512 ------- 0 0.0 1.0 142 142
- 1.581632 0 1 cbr 512 ------- 0 0.0 1.0 142 142
r 1.58344 0 1 cbr 512 ------- 0 0.0 1.0 139 139
+ 1.585728 0 1 cbr 512 ------- 0 0.0 1.0 143 143
- 1.585728 0 1 cbr 512 ------- 0 0.0 1.0 143 143
r 1.587536 0 1 cbr 512 ------- 0 0.0 1.0 140 140
+ 1.589824 0 1 cbr 512 ------- 0 0.0 1.0 144 144
- 1.589824 0 1 cbr 512 ------- 0 0.0 1.0 144 144
r 1.591632 0 1 cbr 512 ------- 0 0.0 1.0 141 141
+ 1.59392 0 1 cbr 512 ------- 0 0.0 1.0 145 145
- 1.59392 0 1 cbr 512 ------- 0 0.0 1.0 145 145
r 1.595728 0 1 cbr 512 ------- 0 0.0 1.0 142 142
+ 1.598016 0 1 cbr 512 ------- 0 0.0 1.0 146 146
- 1.598016 0 1 cbr 512 ------- 0 0.0 1.0 146 146
r 1.599824 0 1 cbr 512 ------- 0 0.0 1.0 143 143
+ 1.602112 0 1 cbr 512 ------- 0 0.0 1.0 147 147
- 1.602112 0 1 cbr 512 ------- 0 0.0 1.0 147 147
r 1.60392 0 1 cbr 512 ------- 0 0.0 1.0 144 144
+ 1.606208 0 1 cbr 512 ------- 0 0.0 1.0 148 148
- 1.606208 0 1 cbr 512 ------- 0 0.0 1.0 148 148
r 1.608016 0 1 cbr 512 ------- 0 0.0 1.0 145 145
+ 1.610304 0 1 cbr 512 ------- 0 0.0 1.0 149 149
- 1.610304 0 1 cbr 512 ------- 0 0.0 1.0 149 149
r 1.612112 0 1 cbr 512 ------- 0 0.0 1.0 146 146
+ 1.6144 0 1 cbr 512 ------- 0 0.0 1.0 150 150
- 1.6144 0 1 cbr 512 ------- 0 0.0 1.0 150 150
r 1.616208 0 1 cbr 512 ------- 0 0.0 1.0 147 147
+ 1.618496 0 1 cbr 512 ------- 0 0.0 1.0 151 151
- 1.618496 0 1 cbr 512 ------- 0 0.0 1.0 151 151
r 1.620304 0 1 cbr 512 ------- 0 0.0 1.0 148 148
+ 1.622592 0 1 cbr 512 ------- 0 0.0 1.0 152 152
- 1.622592 0 1 cbr 512 ------- 0 0.0 1.0 152 152
r 1.6244 0 1 cbr 512 ------- 0 0.0 1.0 149 149
+ 1.626688 0 1 cbr 512 ------- 0 0.0 1.0 153 153
- 1.626688 0 1 cbr 512 ------- 0 0.0 1.0 153 153
r 1.628496 0 1 cbr 512 ------- 0 0.0 1.0 150 150
+ 1.630784 0 1 cbr 512 ------- 0 0.0 1.0 154 154
- 1.630784 0 1 cbr 512 ------- 0 0.0 1.0 154 154
r 1.632592 0 1 cbr 512 ------- 0 0.0 1.0 151 151
+ 1.63488 0 1 cbr 512 ------- 0 0.0 1.0 155 155
- 1.63488 0 1 cbr 512 ------- 0 0.0 1.0 155 155
r 1.636688 0 1 cbr 512 ------- 0 0.0 1.0 152 152
+ 1.638976 0 1 cbr 512 ------- 0 0.0 1.0 156 156
- 1.638976 0 1 cbr 512 ------- 0 0.0 1.0 156 156
r 1.640784 0 1 cbr 512 ------- 0 0.0 1.0 153 153
+ 1.643072 0 1 cbr 512 ------- 0 0.0 1.0 157 157
- 1.643072 0 1 cbr 512 ------- 0 0.0 1.0 157 157
r 1.64488 0 1 cbr 512 ------- 0 0.0 1.0 154 154
+ 1.647168 0 1 cbr 512 ------- 0 0.0 1.0 158 158
- 1.647168 0 1 cbr 512 ------- 0 0.0 1.0 158 158
r 1.648976 0 1 cbr 512 ------- 0 0.0 1.0 155 155
+ 1.651264 0 1 cbr 512 ------- 0 0.0 1.0 159 159
- 1.651264 0 1 cbr 512 ------- 0 0.0 1.0 159 159
r 1.653072 0 1 cbr 512 ------- 0 0.0 1.0 156 156
+ 1.65536 0 1 cbr 512 ------- 0 0.0 1.0 160 160
- 1.65536 0 1 cbr 512 ------- 0 0.0 1.0 160 160
r 1.657168 0 1 cbr 512 ------- 0 0.0 1.0 157 157
+ 1.659456 0 1 cbr 512 ------- 0 0.0 1.0 161 161
- 1.659456 0 1 cbr 512 ------- 0 0.0 1.0 161 161
r 1.661264 0 1 cbr 512 ------- 0 0.0 1.0 158 158
+ 1.663552 0 1 cbr 512 ------- 0 0.0 1.0 162 162
- 1.663552 0 1 cbr 512 ------- 0 0.0 1.0 162 162
r 1.66536 0 1 cbr 512 ------- 0 0.0 1.0 159 159
+ 1.667648 0 1 cbr 512 ------- 0 0.0 1.0 163 163
- 1.667648 0 1 cbr 512 ------- 0 0.0 1.0 163 163
r 1.669456 0 1 cbr 512 ------- 0 0.0 1.0 160 160
+ 1.671744 0 1 cbr 512 ------- 0 0.0 1.0 164 164
- 1.671744 0 1 cbr 512 ------- 0 0.0 1.0 164 164
r 1.673552 0 1 cbr 512 ------- 0 0.0 1.0 161 161
+ 1.67584 0 1 cbr 512 ------- 0 0.0 1.0 165 165
- 1.67584 0 1 cbr 512 ------- 0 0.0 1.0 165 165
r 1.677648 0 1 cbr 512 ------- 0 0.0 1.0 162 162
+ 1.679936 0 1 cbr 512 ------- 0 0.0 1.0 166 166
- 1.679936 0 1 cbr 512 ------- 0 0.0 1.0 166 166
r 1.681744 0 1 cbr 512 ------- 0 0.0 1.0 163 163
+ 1.684032 0 1 cbr 512 ------- 0 0.0 1.0 167 167
- 1.684032 0 1 cbr 512 ------- 0 0.0 1.0 167 167
r 1.68584 0 1 cbr 512 ------- 0 0.0 1.0 164 164
+ 1.688128 0 1 cbr 512 ------- 0 0.0 1.0 168 168
- 1.688128 0 1 cbr 512 ------- 0 0.0 1.0 168 168
r 1.689936 0 1 cbr 512 ------- 0 0.0 1.0 165 165
+ 1.692224 0 1 cbr 512 ------- 0 0.0 1.0 169 169
- 1.692224 0 1 cbr 512 ------- 0 0.0 1.0 169 169
r 1.694032 0 1 cbr 512 ------- 0 0.0 1.0 166 166
+ 1.69632 0 1 cbr 512 ------- 0 0.0 1.0 170 170
- 1.69632 0 1 cbr 512 ------- 0 0.0 1.0 170 170
r 1.698128 0 1 cbr 512 ------- 0 0.0 1.0 167 167
+ 1.700416 0 1 cbr 512 ------- 0 0.0 1.0 171 171
- 1.700416 0 1 cbr 512 ------- 0 0.0 1.0 171 171
r 1.702224 0 1 cbr 512 ------- 0 0.0 1.0 168 168
+ 1.704512 0 1 cbr 512 ------- 0 0.0 1.0 172 172
- 1.704512 0 1 cbr 512 ------- 0 0.0 1.0 172 172
r 1.70632 0 1 cbr 512 ------- 0 0.0 1.0 169 169
+ 1.708608 0 1 cbr 512 ------- 0 0.0 1.0 173 173
- 1.708608 0 1 cbr 512 ------- 0 0.0 1.0 173 173
r 1.710416 0 1 cbr 512 ------- 0 0.0 1.0 170 170
+ 1.712704 0 1 cbr 512 ------- 0 0.0 1.0 174 174
- 1.712704 0 1 cbr 512 ------- 0 0.0 1.0 174 174
r 1.714512 0 1 cbr 512 ------- 0 0.0 1.0 171 171
+ 1.7168 0 1 cbr 512 ------- 0 0.0 1.0 175 175
- 1.7168 0 1 cbr 512 ------- 0 0.0 1.0 175 175
r 1.718608 0 1 cbr 512 ------- 0 0.0 1.0 172 172
+ 1.720896 0 1 cbr 512 ------- 0 0.0 1.0 176 176
- 1.720896 0 1 cbr 512 ------- 0 0.0 1.0 176 176
r 1.722704 0 1 cbr 512 ------- 0 0.0 1.0 173 173
+ 1.724992 0 1 cbr 512 ------- 0 0.0 1.0 177 177
- 1.724992 0 1 cbr 512 ------- 0 0.0 1.0 177 177
r 1.7268 0 1 cbr 512 ------- 0 0.0 1.0 174 174
+ 1.729088 0 1 cbr 512 ------- 0 0.0 1.0 178 178
- 1.729088 0 1 cbr 512 ------- 0 0.0 1.0 178 178
r 1.730896 0 1 cbr 512 ------- 0 0.0 1.0 175 175
+ 1.733184 0 1 cbr 512 ------- 0 0.0 1.0 179 179
- 1.733184 0 1 cbr 512 ------- 0 0.0 1.0 179 179
r 1.734992 0 1 cbr 512 ------- 0 0.0 1.0 176 176
+ 1.73728 0 1 cbr 512 ------- 0 0.0 1.0 180 180
- 1.73728 0 1 cbr 512 ------- 0 0.0 1.0 180 180
r 1.739088 0 1 cbr 512 ------- 0 0.0 1.0 177 177
+ 1.741376 0 1 cbr 512 ------- 0 0.0 1.0 181 181
- 1.741376 0 1 cbr 512 ------- 0 0.0 1.0 181 181
r 1.743184 0 1 cbr 512 ------- 0 0.0 1.0 178 178
+ 1.745472 0 1 cbr 512 ------- 0 0.0 1.0 182 182
- 1.745472 0 1 cbr 512 ------- 0 0.0 1.0 182 182
r 1.74728 0 1 cbr 512 ------- 0 0.0 1.0 179 179
+ 1.749568 0 1 cbr 512 ------- 0 0.0 1.0 183 183
- 1.749568 0 1 cbr 512 ------- 0 0.0 1.0 183 183
r 1.751376 0 1 cbr 512 ------- 0 0.0 1.0 180 180
+ 1.753664 0 1 cbr 512 ------- 0 0.0 1.0 184 184
- 1.753664 0 1 cbr 512 ------- 0 0.0 1.0 184 184
r 1.755472 0 1 cbr 512 ------- 0 0.0 1.0 181 181
+ 1.75776 0 1 cbr 512 ------- 0 0.0 1.0 185 185
- 1.75776 0 1 cbr 512 ------- 0 0.0 1.0 185 185
r 1.759568 0 1 cbr 512 ------- 0 0.0 1.0 182 182
+ 1.761856 0 1 cbr 512 ------- 0 0.0 1.0 186 186
- 1.761856 0 1 cbr 512 ------- 0 0.0 1.0 186 186
r 1.763664 0 1 cbr 512 ------- 0 0.0 1.0 183 183
+ 1.765952 0 1 cbr 512 ------- 0 0.0 1.0 187 187
- 1.765952 0 1 cbr 512 ------- 0 0.0 1.0 187 187
r 1.76776 0 1 cbr 512 ------- 0 0.0 1.0 184 184
+ 1.770048 0 1 cbr 512 ------- 0 0.0 1.0 188 188
- 1.770048 0 1 cbr 512 ------- 0 0.0 1.0 188 188
r 1.771856 0 1 cbr 512 ------- 0 0.0 1.0 185 185
+ 1.774144 0 1 cbr 512 ------- 0 0.0 1.0 189 189
- 1.774144 0 1 cbr 512 ------- 0 0.0 1.0 189 189
r 1.775952 0 1 cbr 512 ------- 0 0.0 1.0 186 186
+ 1.77824 0 1 cbr 512 ------- 0 0.0 1.0 190 190
- 1.77824 0 1 cbr 512 ------- 0 0.0 1.0 190 190
r 1.780048 0 1 cbr 512 ------- 0 0.0 1.0 187 187
+ 1.782336 0 1 cbr 512 ------- 0 0.0 1.0 191 191
- 1.782336 0 1 cbr 512 ------- 0 0.0 1.0 191 191
r 1.784144 0 1 cbr 512 ------- 0 0.0 1.0 188 188
+ 1.786432 0 1 cbr 512 ------- 0 0.0 1.0 192 192
- 1.786432 0 1 cbr 512 ------- 0 0.0 1.0 192 192
r 1.78824 0 1 cbr 512 ------- 0 0.0 1.0 189 189
+ 1.790528 0 1 cbr 512 ------- 0 0.0 1.0 193 193
- 1.790528 0 1 cbr 512 ------- 0 0.0 1.0 193 193
r 1.792336 0 1 cbr 512 ------- 0 0.0 1.0 190 190
+ 1.794624 0 1 cbr 512 ------- 0 0.0 1.0 194 194
- 1.794624 0 1 cbr 512 ------- 0 0.0 1.0 194 194
r 1.796432 0 1 cbr 512 ------- 0 0.0 1.0 191 191
+ 1.79872 0 1 cbr 512 ------- 0 0.0 1.0 195 195
- 1.79872 0 1 cbr 512 ------- 0 0.0 1.0 195 195
r 1.800528 0 1 cbr 512 ------- 0 0.0 1.0 192 192
+ 1.802816 0 1 cbr 512 ------- 0 0.0 1.0 196 196
- 1.802816 0 1 cbr 512 ------- 0 0.0 1.0 196 196
r 1.804624 0 1 cbr 512 ------- 0 0.0 1.0 193 193
+ 1.806912 0 1 cbr 512 ------- 0 0.0 1.0 197 197
- 1.806912 0 1 cbr 512 ------- 0 0.0 1.0 197 197
r 1.80872 0 1 cbr 512 ------- 0 0.0 1.0 194 194
+ 1.811008 0 1 cbr 512 ------- 0 0.0 1.0 198 198
- 1.811008 0 1 cbr 512 ------- 0 0.0 1.0 198 198
r 1.812816 0 1 cbr 512 ------- 0 0.0 1.0 195 195
+ 1.815104 0 1 cbr 512 ------- 0 0.0 1.0 199 199
- 1.815104 0 1 cbr 512 ------- 0 0.0 1.0 199 199
r 1.816912 0 1 cbr 512 ------- 0 0.0 1.0 196 196
+ 1.8192 0 1 cbr 512 ------- 0 0.0 1.0 200 200
- 1.8192 0 1 cbr 512 ------- 0 0.0 1.0 200 200
r 1.821008 0 1 cbr 512 ------- 0 0.0 1.0 197 197
+ 1.823296 0 1 cbr 512 ------- 0 0.0 1.0 201 201
- 1.823296 0 1 cbr 512 ------- 0 0.0 1.0 201 201
r 1.825104 0 1 cbr 512 ------- 0 0.0 1.0 198 198
+ 1.827392 0 1 cbr 512 ------- 0 0.0 1.0 202 202
- 1.827392 0 1 cbr 512 ------- 0 0.0 1.0 202 202
r 1.8292 0 1 cbr 512 ------- 0 0.0 1.0 199 199
+ 1.831488 0 1 cbr 512 ------- 0 0.0 1.0 203 203
- 1.831488 0 1 cbr 512 ------- 0 0.0 1.0 203 203
r 1.833296 0 1 cbr 512 ------- 0 0.0 1.0 200 200
+ 1.835584 0 1 cbr 512 ------- 0 0.0 1.0 204 204
- 1.835584 0 1 cbr 512 ------- 0 0.0 1.0 204 204
r 1.837392 0 1 cbr 512 ------- 0 0.0 1.0 201 201
+ 1.83968 0 1 cbr 512 ------- 0 0.0 1.0 205 205
- 1.83968 0 1 cbr 512 ------- 0 0.0 1.0 205 205
r 1.841488 0 1 cbr 512 ------- 0 0.0 1.0 202 202
+ 1.843776 0 1 cbr 512 ------- 0 0.0 1.0 206 206
- 1.843776 0 1 cbr 512 ------- 0 0.0 1.0 206 206
r 1.845584 0 1 cbr 512 ------- 0 0.0 1.0 203 203
+ 1.847872 0 1 cbr 512 ------- 0 0.0 1.0 207 207
- 1.847872 0 1 cbr 512 ------- 0 0.0 1.0 207 207
r 1.84968 0 1 cbr 512 ------- 0 0.0 1.0 204 204
+ 1.851968 0 1 cbr 512 ------- 0 0.0 1.0 208 208
- 1.851968 0 1 cbr 512 ------- 0 0.0 1.0 208 208
r 1.853776 0 1 cbr 512 ------- 0 0.0 1.0 205 205
+ 1.856064 0 1 cbr 512 ------- 0 0.0 1.0 209 209
- 1.856064 0 1 cbr 512 ------- 0 0.0 1.0 209 209
r 1.857872 0 1 cbr 512 ------- 0 0.0 1.0 206 206
+ 1.86016 0 1 cbr 512 ------- 0 0.0 1.0 210 210
- 1.86016 0 1 cbr 512 ------- 0 0.0 1.0 210 210